     Message from routine get_command_line:
     unexpected argument # 2     :-inp

     Program PWSCF v.6.0 starts on 20May2021 at 14: 3:32 

     This program is part of the open-source Quantum ESPRESSO suite
     for quantum simulation of materials; please cite
         "P. Giannozzi et al., J. Phys.:Condens. Matter 21 395502 (2009);
          URL http://www.quantum-espresso.org", 
     in publications or presentations arising from this work. More details at
     http://www.quantum-espresso.org/quote

     Parallel version (MPI), running on     1 processors
     Waiting for input...
     Reading input from standard input

     Current dimensions of program PWSCF are:
     Max number of different atomic species (ntypx) = 10
     Max number of k-points (npk) =  40000
     Max angular momentum in pseudopotentials (lmaxx) =  3

     Subspace diagonalization in iterative solution of the eigenvalue problem:
     a serial algorithm will be used


     G-vector sticks info
     --------------------
     sticks:   dense  smooth     PW     G-vecs:    dense   smooth      PW
     Sum        1189     595    187                27317     9577    1687



     bravais-lattice index     =            2
     lattice parameter (alat)  =      10.4109  a.u.
     unit-cell volume          =     282.1019 (a.u.)^3
     number of atoms/cell      =            2
     number of atomic types    =            1
     number of electrons       =         8.00
     number of Kohn-Sham states=            4
     kinetic-energy cutoff     =      40.0000  Ry
     charge density cutoff     =     320.0000  Ry
     convergence threshold     =      1.0E-08
     mixing beta               =       0.7000
     number of iterations used =            8  plain     mixing
     Exchange-correlation      = PBE ( 1  4  3  4 0 0)

     celldm(1)=  10.410909  celldm(2)=   0.000000  celldm(3)=   0.000000
     celldm(4)=   0.000000  celldm(5)=   0.000000  celldm(6)=   0.000000

     crystal axes: (cart. coord. in units of alat)
               a(1) = (  -0.500000   0.000000   0.500000 )  
               a(2) = (   0.000000   0.500000   0.500000 )  
               a(3) = (  -0.500000   0.500000   0.000000 )  

     reciprocal axes: (cart. coord. in units 2 pi/alat)
               b(1) = ( -1.000000 -1.000000  1.000000 )  
               b(2) = (  1.000000  1.000000  1.000000 )  
               b(3) = ( -1.000000  1.000000 -1.000000 )  


     PseudoPot. # 1 for Si read from file:
     /home/maestro/Downloads/SSSP_efficiency_pseudos/Si.pbe-n-rrkjus_psl.1.0.0.UPF
     MD5 check sum: 0b0bb1205258b0d07b9f9672cf965d36
     Pseudo is Ultrasoft + core correction, Zval =  4.0
     Generated using "atomic" code by A. Dal Corso  v.5.1
     Using radial grid of 1141 points,  6 beta functions with: 
                l(1) =   0
                l(2) =   0
                l(3) =   1
                l(4) =   1
                l(5) =   2
                l(6) =   2
     Q(r) pseudized with 0 coefficients 


     atomic species   valence    mass     pseudopotential
        Si             4.00    28.08550     Si( 1.00)

     24 Sym. Ops. (no inversion) found
          (note: 24 additional sym.ops. were found but ignored
           their fractional translations are incommensurate with FFT grid)


   Cartesian axes

     site n.     atom                  positions (alat units)
         1           Si  tau(   1) = (   0.0000000   0.0000000   0.0000000  )
         2           Si  tau(   2) = (   0.2500000   0.2500000   0.2500000  )

     number of k points=    29
                       cart. coord. in units 2pi/alat
        k(    1) = (   0.0000000   0.0000000   0.0000000), wk =   0.0039062
        k(    2) = (  -0.1250000   0.1250000  -0.1250000), wk =   0.0312500
        k(    3) = (  -0.2500000   0.2500000  -0.2500000), wk =   0.0312500
        k(    4) = (  -0.3750000   0.3750000  -0.3750000), wk =   0.0312500
        k(    5) = (   0.5000000  -0.5000000   0.5000000), wk =   0.0156250
        k(    6) = (   0.0000000   0.2500000   0.0000000), wk =   0.0234375
        k(    7) = (  -0.1250000   0.3750000  -0.1250000), wk =   0.0937500
        k(    8) = (  -0.2500000   0.5000000  -0.2500000), wk =   0.0937500
        k(    9) = (   0.6250000  -0.3750000   0.6250000), wk =   0.0937500
        k(   10) = (   0.5000000  -0.2500000   0.5000000), wk =   0.0937500
        k(   11) = (   0.3750000  -0.1250000   0.3750000), wk =   0.0937500
        k(   12) = (   0.2500000   0.0000000   0.2500000), wk =   0.0468750
        k(   13) = (   0.0000000   0.5000000   0.0000000), wk =   0.0234375
        k(   14) = (  -0.1250000   0.6250000  -0.1250000), wk =   0.0937500
        k(   15) = (   0.7500000  -0.2500000   0.7500000), wk =   0.0937500
        k(   16) = (   0.6250000  -0.1250000   0.6250000), wk =   0.0937500
        k(   17) = (   0.5000000   0.0000000   0.5000000), wk =   0.0468750
        k(   18) = (   0.0000000   0.7500000   0.0000000), wk =   0.0234375
        k(   19) = (   0.8750000  -0.1250000   0.8750000), wk =   0.0937500
        k(   20) = (   0.7500000   0.0000000   0.7500000), wk =   0.0468750
        k(   21) = (   0.0000000  -1.0000000   0.0000000), wk =   0.0117188
        k(   22) = (  -0.2500000   0.5000000   0.0000000), wk =   0.0937500
        k(   23) = (   0.6250000  -0.3750000   0.8750000), wk =   0.1875000
        k(   24) = (   0.5000000  -0.2500000   0.7500000), wk =   0.0937500
        k(   25) = (   0.7500000  -0.2500000   1.0000000), wk =   0.0937500
        k(   26) = (   0.6250000  -0.1250000   0.8750000), wk =   0.1875000
        k(   27) = (   0.5000000   0.0000000   0.7500000), wk =   0.0937500
        k(   28) = (  -0.2500000  -1.0000000   0.0000000), wk =   0.0468750
        k(   29) = (  -0.5000000  -1.0000000   0.0000000), wk =   0.0234375

     Dense  grid:    27317 G-vectors     FFT dimensions: (  45,  45,  45)

     Smooth grid:     9577 G-vectors     FFT dimensions: (  30,  30,  30)

     Estimated max dynamical RAM per process >      20.53Mb

     Initial potential from superposition of free atoms

     starting charge    7.99888, renormalised to    8.00000
     Starting wfc are    8 randomized atomic wfcs

     total cpu time spent up to now is        3.3 secs

     per-process dynamical memory:    19.3 Mb

     Self-consistent Calculation

     iteration #  1     ecut=    40.00 Ry     beta=0.70
     Davidson diagonalization with overlap
     ethr =  1.00E-02,  avg # of iterations =  2.0

     Threshold (ethr) on eigenvalues was too large:
     Diagonalizing with lowered threshold

     Davidson diagonalization with overlap
     ethr =  6.47E-04,  avg # of iterations =  1.5

     total cpu time spent up to now is        5.3 secs

     total energy              =     -22.83719506 Ry
     Harris-Foulkes estimate   =     -22.84887508 Ry
     estimated scf accuracy    <       0.05152377 Ry

     iteration #  2     ecut=    40.00 Ry     beta=0.70
     Davidson diagonalization with overlap
     ethr =  6.44E-04,  avg # of iterations =  1.0

     total cpu time spent up to now is        6.4 secs

     total energy              =     -22.83884712 Ry
     Harris-Foulkes estimate   =     -22.83907805 Ry
     estimated scf accuracy    <       0.00263594 Ry

     iteration #  3     ecut=    40.00 Ry     beta=0.70
     Davidson diagonalization with overlap
     ethr =  3.29E-05,  avg # of iterations =  2.7

     total cpu time spent up to now is        7.6 secs

     total energy              =     -22.83940810 Ry
     Harris-Foulkes estimate   =     -22.83946103 Ry
     estimated scf accuracy    <       0.00011547 Ry

     iteration #  4     ecut=    40.00 Ry     beta=0.70
     Davidson diagonalization with overlap
     ethr =  1.44E-06,  avg # of iterations =  2.1

     total cpu time spent up to now is        8.7 secs

     total energy              =     -22.83942936 Ry
     Harris-Foulkes estimate   =     -22.83945193 Ry
     estimated scf accuracy    <       0.00004763 Ry

     iteration #  5     ecut=    40.00 Ry     beta=0.70
     Davidson diagonalization with overlap
     ethr =  5.95E-07,  avg # of iterations =  2.0

     total cpu time spent up to now is        9.9 secs

     total energy              =     -22.83943545 Ry
     Harris-Foulkes estimate   =     -22.83943549 Ry
     estimated scf accuracy    <       0.00000018 Ry

     iteration #  6     ecut=    40.00 Ry     beta=0.70
     Davidson diagonalization with overlap
     ethr =  2.24E-09,  avg # of iterations =  3.9

     total cpu time spent up to now is       11.9 secs

     total energy              =     -22.83943576 Ry
     Harris-Foulkes estimate   =     -22.83943576 Ry
     estimated scf accuracy    <       0.00000003 Ry

     iteration #  7     ecut=    40.00 Ry     beta=0.70
     Davidson diagonalization with overlap
     ethr =  3.84E-10,  avg # of iterations =  1.1

     total cpu time spent up to now is       13.0 secs

     End of self-consistent calculation

          k = 0.0000 0.0000 0.0000 (  1243 PWs)   bands (ev):

    -5.9089   5.7620   5.7620   5.7620

          k =-0.1250 0.1250-0.1250 (  1218 PWs)   bands (ev):

    -5.7123   4.1730   5.4851   5.4851

          k =-0.2500 0.2500-0.2500 (  1215 PWs)   bands (ev):

    -5.1396   1.9094   5.0293   5.0293

          k =-0.3750 0.3750-0.3750 (  1203 PWs)   bands (ev):

    -4.2852  -0.0388   4.7101   4.7101

          k = 0.5000-0.5000 0.5000 (  1194 PWs)   bands (ev):

    -3.6849  -1.0121   4.6005   4.6005

          k = 0.0000 0.2500 0.0000 (  1219 PWs)   bands (ev):

    -5.6460   4.3842   4.9936   4.9936

          k =-0.1250 0.3750-0.1250 (  1217 PWs)   bands (ev):

    -5.1950   2.5667   4.4998   4.5511

          k =-0.2500 0.5000-0.2500 (  1205 PWs)   bands (ev):

    -4.4136   0.5841   3.9753   4.2375

          k = 0.6250-0.3750 0.6250 (  1204 PWs)   bands (ev):

    -3.5977  -0.8127   3.5466   4.2568

          k = 0.5000-0.2500 0.5000 (  1199 PWs)   bands (ev):

    -3.8276  -0.4610   3.3780   4.5391

          k = 0.3750-0.1250 0.3750 (  1209 PWs)   bands (ev):

    -4.7070   1.2172   3.5361   5.0107

          k = 0.2500 0.0000 0.2500 (  1217 PWs)   bands (ev):

    -5.3887   3.0894   4.2093   5.4740

          k = 0.0000 0.5000 0.0000 (  1198 PWs)   bands (ev):

    -4.8669   2.2341   3.9509   3.9509

          k =-0.1250 0.6250-0.1250 (  1216 PWs)   bands (ev):

    -4.1846   0.8643   3.1996   3.6426

          k = 0.7500-0.2500 0.7500 (  1209 PWs)   bands (ev):

    -3.3015  -0.5098   2.3674   3.6432

          k = 0.6250-0.1250 0.6250 (  1198 PWs)   bands (ev):

    -3.1115  -0.7513   1.9312   3.9474

          k = 0.5000 0.0000 0.5000 (  1203 PWs)   bands (ev):

    -3.9465   0.3559   2.1725   4.4818

          k = 0.0000 0.7500 0.0000 (  1206 PWs)   bands (ev):

    -3.6037   0.0753   3.2585   3.2585

          k = 0.8750-0.1250 0.8750 (  1205 PWs)   bands (ev):

    -2.7431  -0.9721   2.4768   3.1842

          k = 0.7500 0.0000 0.7500 (  1202 PWs)   bands (ev):

    -2.3355  -1.3458   1.6587   3.4312

          k = 0.0000-1.0000 0.0000 (  1186 PWs)   bands (ev):

    -1.9201  -1.9201   3.0209   3.0209

          k =-0.2500 0.5000 0.0000 (  1216 PWs)   bands (ev):

    -4.6299   1.5070   3.1670   4.3860

          k = 0.6250-0.3750 0.8750 (  1205 PWs)   bands (ev):

    -3.7801   0.0202   2.5670   3.9123

          k = 0.5000-0.2500 0.7500 (  1198 PWs)   bands (ev):

    -3.1644  -0.8735   2.4331   3.6957

          k = 0.7500-0.2500 1.0000 (  1210 PWs)   bands (ev):

    -3.4158  -0.1361   2.5442   3.1249

          k = 0.6250-0.1250 0.8750 (  1203 PWs)   bands (ev):

    -2.5840  -1.0647   1.8822   2.9338

          k = 0.5000 0.0000 0.7500 (  1203 PWs)   bands (ev):

    -2.9204  -0.7124   1.7244   3.2912

          k =-0.2500-1.0000 0.0000 (  1196 PWs)   bands (ev):

    -1.8506  -1.8506   2.4958   2.4958

          k =-0.5000-1.0000 0.0000 (  1216 PWs)   bands (ev):

    -1.7748  -1.7747   2.0883   2.0883

     highest occupied level (ev):     5.7620

!    total energy              =     -22.83943576 Ry
     Harris-Foulkes estimate   =     -22.83943576 Ry
     estimated scf accuracy    <          2.3E-09 Ry

     The total energy is the sum of the following terms:

     one-electron contribution =       4.83572676 Ry
     hartree contribution      =       1.13965661 Ry
     xc contribution           =     -12.25742404 Ry
     ewald contribution        =     -16.55739508 Ry

     convergence has been achieved in   7 iterations

     Writing output data file si.save

     init_run     :      1.91s CPU      2.52s WALL (       1 calls)
     electrons    :      7.31s CPU      9.75s WALL (       1 calls)

     Called by init_run:
     wfcinit      :      0.37s CPU      0.50s WALL (       1 calls)
     potinit      :      0.10s CPU      0.17s WALL (       1 calls)

     Called by electrons:
     c_bands      :      4.25s CPU      5.28s WALL (       8 calls)
     sum_band     :      1.66s CPU      2.59s WALL (       8 calls)
     v_of_rho     :      0.60s CPU      0.79s WALL (       8 calls)
     newd         :      1.04s CPU      1.49s WALL (       8 calls)
     mix_rho      :      0.04s CPU      0.06s WALL (       8 calls)

     Called by c_bands:
     init_us_2    :      0.38s CPU      0.40s WALL (     493 calls)
     cegterg      :      3.38s CPU      4.30s WALL (     232 calls)

     Called by sum_band:
     sum_band:bec :      0.00s CPU      0.00s WALL (     232 calls)
     addusdens    :      0.87s CPU      1.57s WALL (       8 calls)

     Called by *egterg:
     h_psi        :      3.16s CPU      4.10s WALL (     734 calls)
     s_psi        :      0.22s CPU      0.28s WALL (     734 calls)
     g_psi        :      0.03s CPU      0.02s WALL (     473 calls)
     cdiaghg      :      0.03s CPU      0.04s WALL (     676 calls)

     Called by h_psi:
     h_psi:pot    :      3.15s CPU      4.07s WALL (     734 calls)
     h_psi:calbec :      0.19s CPU      0.28s WALL (     734 calls)
     vloc_psi     :      2.75s CPU      3.50s WALL (     734 calls)
     add_vuspsi   :      0.20s CPU      0.28s WALL (     734 calls)

     General routines
     calbec       :      0.29s CPU      0.36s WALL (     966 calls)
     fft          :      0.28s CPU      0.45s WALL (     128 calls)
     ffts         :      0.03s CPU      0.01s WALL (      16 calls)
     fftw         :      2.80s CPU      3.70s WALL (    6448 calls)
     interpolate  :      0.06s CPU      0.07s WALL (      16 calls)
     davcio       :      0.00s CPU      0.00s WALL (      29 calls)

     Parallel routines
     fft_scatter  :      0.18s CPU      0.18s WALL (    6592 calls)

     PWSCF        :     9.88s CPU        13.19s WALL


   This run was terminated on:  14: 3:45  20May2021            

=------------------------------------------------------------------------------=
   JOB DONE.
=------------------------------------------------------------------------------=
